# vtk DataFile Version 2.0
Really cool data
ASCII
DATASET STRUCTURED_POINTS
DIMENSIONS 50 50 1
ORIGIN -12.5 -12.5 0
SPACING 0.5 0.5 1
POINT_DATA 2500
SCALARS Scalars0 double 1
LOOKUP_TABLE default
-0.363780508291 -0.648660971773 -0.856366790468 -0.966479138196 -0.971873081866 -0.877998080656 -0.70057429258 -0.462285176629 -0.189099763756 0.0932003041825 0.361852686211 0.599049224489 0.792900999983 0.937515758678 1.03237733412 1.08126987948 1.09099300781 1.07007923839 1.02766786985 0.972624711497 0.912937220563 0.85536739392 0.805313668131 0.766817841938 0.742651032165 0.734420273502 0.742651032165 0.766817841938 0.805313668131 0.85536739392 0.912937220563 0.972624711497 1.02766786985 1.07007923839 1.09099300781 1.08126987948 1.03237733412 0.937515758678 0.792900999983 0.599049224489 0.361852686211 0.0932003041825 -0.189099763756 -0.462285176629 -0.70057429258 -0.877998080656 -0.971873081866 -0.966479138196 -0.856366790468 -0.648660971773 -0.648660971773 -0.863288948645 -0.971309150235 -0.964241358319 -0.848391575348 -0.642316277911 -0.372942876808 -0.0711223641339 0.232649930067 0.511763681017 0.745912183773 0.922276541299 1.03556121145 1.08711853956 1.08348079479 1.03463051189 0.952297676599 0.848495874916 0.734420273502 0.619746189497 0.512300155398 0.418031375139 0.341190203776 0.284617763946 0.250061201787 0.238446553984 0.250061201787 0.284617763946 0.341190203776 0.418031375139 0.512300155398 0.619746189497 0.734420273502 0.848495874916 0.952297676599 1.03463051189 1.08348079479 1.08711853956 1.03556121145 0.922276541299 0.745912183773 0.511763681017 0.232649930067 -0.0711223641339 -0.372942876808 -0.642316277911 -0.848391575348 -0.964241358319 -0.971309150235 -0.863288948645 -0.856366790468 -0.971309150235 -0.961232027636 -0.832240525357 -0.605071286445 -0.310693564302 0.0149646415129 0.336239464208 0.622132925477 0.84938294022 1.00399023154 1.08126987948 1.08470893668 1.02403562045 0.912937220563 0.766817841938 0.600889182822 0.428766972854 0.261628675328 0.10789340718 -0.0266776241725 -0.138591517157 -0.226078296063 -0.288506426669 -0.325849862127 -0.338269740558 -0.325849862127 -0.288506426669 -0.226078296063 -0.138591517157 -0.0266776241725 0.10789340718 0.261628675328 0.428766972854 0.600889182822 0.766817841938 0.912937220563 1.02403562045 1.08470893668 1.08126987948 1.00399023154 0.84938294022 0.622132925477 0.336239464208 0.0149646415129 -0.310693564302 -0.605071286445 -0.832240525357 -0.961232027636 -0.971309150235 -0.966479138196 -0.964241358319 -0.832240525357 -0.592288772106 -0.278848411054 0.0670704357494 0.404200677053 0.696493353293 0.917060105754 1.05023115502 1.09174061641 1.04734788907 0.930392824893 0.758850343848 0.552409470702 0.329982766335 0.10789340718 -0.101173898653 -0.288506426669 -0.44912078751 -0.581127221477 -0.684886298328 -0.762116839944 -0.815072608509 -0.845862272047 -0.855951502036 -0.845862272047 -0.815072608509 -0.762116839944 -0.684886298328 -0.581127221477 -0.44912078751 -0.288506426669 -0.101173898653 0.10789340718 0.329982766335 0.552409470702 0.758850343848 0.930392824893 1.04734788907 1.09174061641 1.05023115502 0.917060105754 0.696493353293 0.404200677053 0.0670704357494 -0.278848411054 -0.592288772106 -0.832240525357 -0.964241358319 -0.971873081866 -0.848391575348 -0.605071286445 -0.278848411054 0.084486254835 0.437724340052 0.738995832988 0.956855880081 1.07313948311 1.08348079479 0.995797244547 0.827320862165 0.600889182822 0.341190203776 0.0715220792576 -0.188573195065 -0.424660541445 -0.627795936835 -0.794127893603 -0.923969085748 -1.02059846226 -1.08901612609 -1.13481009001 -1.16322558562 -1.17846922412 -1.18324097231 -1.17846922412 -1.16322558562 -1.13481009001 -1.08901612609 -1.02059846226 -0.923969085748 -0.794127893603 -0.627795936835 -0.424660541445 -0.188573195065 0.0715220792576 0.341190203776 0.600889182822 0.827320862165 0.995797244547 1.08348079479 1.07313948311 0.956855880081 0.738995832988 0.437724340052 0.084486254835 -0.278848411054 -0.605071286445 -0.848391575348 -0.877998080656 -0.642316277911 -0.310693564302 0.0670704357494 0.437724340052 0.752778936859 0.97504343066 1.08262363355 1.07007923839 0.946968872459 0.734420273502 0.460590698487 0.155916670606 -0.151079951408 -0.436905133219 -0.684886298328 -0.885673859089 -1.0366788551 -1.14078739681 -1.2047167594 -1.23733144765 -1.24814782207 -1.24615200107 -1.23896193342 -1.23229650006 -1.22967882226 -1.23229650006 -1.23896193342 -1.24615200107 -1.24814782207 -1.23733144765 -1.2047167594 -1.14078739681 -1.0366788551 -0.885673859089 -0.684886298328 -0.436905133219 -0.151079951408 0.155916670606 0.460590698487 0.734420273502 0.946968872459 1.07007923839 1.08262363355 0.97504343066 0.752778936859 0.437724340052 0.0670704357494 -0.310693564302 -0.642316277911 -0.70057429258 -0.372942876808 0.0149646415129 0.404200677053 0.738995832988 0.97504343066 1.08505582466 1.06098066886 0.912937220563 0.665501839368 0.352342079385 0.0103279766392 -0.325849862127 -0.627795936835 -0.875858962199 -1.05987618914 -1.17846922412 -1.23733144765 -1.24700868293 -1.22063002335 -1.17192881663 -1.11374543854 -1.05706055044 -1.01049612808 -0.980154486241 -0.969643738437 -0.980154486241 -1.01049612808 -1.05706055044 -1.11374543854 -1.17192881663 -1.22063002335 -1.24700868293 -1.23733144765 -1.17846922412 -1.05987618914 -0.875858962199 -0.627795936835 -0.325849862127 0.0103279766392 0.352342079385 0.665501839368 0.912937220563 1.06098066886 1.08505582466 0.97504343066 0.738995832988 0.404200677053 0.0149646415129 -0.372942876808 -0.462285176629 -0.0711223641339 0.336239464208 0.696493353293 0.956855880081 1.08262363355 1.06098066886 0.900814931338 0.629057191932 0.284617763946 -0.0887218974836 -0.44912078751 -0.762116839944 -1.00404059399 -1.16322558562 -1.23925665548 -1.2407899974 -1.18261101805 -1.08257469005 -0.958935730183 -0.828376475098 -0.704833144977 -0.599048759672 -0.518667241411 -0.468633341662 -0.451668055914 -0.468633341662 -0.518667241411 -0.599048759672 -0.704833144977 -0.828376475098 -0.958935730183 -1.08257469005 -1.18261101805 -1.2407899974 -1.23925665548 -1.16322558562 -1.00404059399 -0.762116839944 -0.44912078751 -0.0887218974836 0.284617763946 0.629057191932 0.900814931338 1.06098066886 1.08262363355 0.956855880081 0.696493353293 0.336239464208 -0.0711223641339 -0.189099763756 0.232649930067 0.622132925477 0.917060105754 1.07313948311 1.07007923839 0.912937220563 0.629057191932 0.261628675328 -0.138591517157 -0.521718113976 -0.845862272047 -1.08192761401 -1.21564773964 -1.24700868293 -1.18764641186 -1.05706055044 -0.878525733795 -0.675444290969 -0.468633341662 -0.274751994363 -0.105817246953 0.0304254641313 0.12960341495 0.189626525903 0.209696259215 0.189626525903 0.12960341495 0.0304254641313 -0.105817246953 -0.274751994363 -0.468633341662 -0.675444290969 -0.878525733795 -1.05706055044 -1.18764641186 -1.24700868293 -1.21564773964 -1.08192761401 -0.845862272047 -0.521718113976 -0.138591517157 0.261628675328 0.629057191932 0.912937220563 1.07007923839 1.07313948311 0.917060105754 0.622132925477 0.232649930067 0.0932003041825 0.511763681017 0.84938294022 1.05023115502 1.08348079479 0.946968872459 0.665501839368 0.284617763946 -0.138591517157 -0.545613438331 -0.885673859089 -1.12242445833 -1.23733144765 -1.22967882226 -1.11374543854 -0.914146988272 -0.660495694427 -0.382434625551 -0.105817246953 0.149576025364 0.37076414372 0.551001683793 0.688354902296 0.78388563136 0.839855030586 0.858254035688 0.839855030586 0.78388563136 0.688354902296 0.551001683793 0.37076414372 0.149576025364 -0.105817246953 -0.382434625551 -0.660495694427 -0.914146988272 -1.11374543854 -1.22967882226 -1.23733144765 -1.12242445833 -0.885673859089 -0.545613438331 -0.138591517157 0.284617763946 0.665501839368 0.946968872459 1.08348079479 1.05023115502 0.84938294022 0.511763681017 0.361852686211 0.745912183773 1.00399023154 1.09174061641 0.995797244547 0.734420273502 0.352342079385 -0.0887218974836 -0.521718113976 -0.885673859089 -1.13481009001 -1.24395784007 -1.20977675039 -1.04815062491 -0.788814551749 -0.468633341662 -0.12496976595 0.209696259215 0.511199699736 0.764989941733 0.965555552547 1.11451758683 1.21803652906 1.28412068821 1.32026867099 1.3316982894 1.32026867099 1.28412068821 1.21803652906 1.11451758683 0.965555552547 0.764989941733 0.511199699736 0.209696259215 -0.12496976595 -0.468633341662 -0.788814551749 -1.04815062491 -1.20977675039 -1.24395784007 -1.13481009001 -0.885673859089 -0.521718113976 -0.0887218974836 0.352342079385 0.734420273502 0.995797244547 1.09174061641 1.00399023154 0.745912183773 0.599049224489 0.922276541299 1.08126987948 1.04734788907 0.827320862165 0.460590698487 0.0103279766392 -0.44912078751 -0.845862272047 -1.12242445833 -1.24395784007 -1.20153271451 -1.01049612808 -0.704833144977 -0.329139990107 0.0699440509826 0.451180188276 0.78388563136 1.05030016934 1.24530984389 1.37415890022 1.44902176998 1.48529604556 1.49827589671 1.50057497228 1.5003963526 1.50057497228 1.49827589671 1.48529604556 1.44902176998 1.37415890022 1.24530984389 1.05030016934 0.78388563136 0.451180188276 0.0699440509826 -0.329139990107 -0.704833144977 -1.01049612808 -1.20153271451 -1.24395784007 -1.12242445833 -0.845862272047 -0.44912078751 0.0103279766392 0.460590698487 0.827320862165 1.04734788907 1.08126987948 0.922276541299 0.792900999983 1.03556121145 1.08470893668 0.930392824893 0.600889182822 0.155916670606 -0.325849862127 -0.762116839944 -1.08192761401 -1.23733144765 -1.20977675039 -1.01049612808 -0.675444290969 -0.25639286696 0.189626525903 0.610289872775 0.965555552547 1.23180913175 1.40241720153 1.48529604556 1.49859267592 1.46571736797 1.4107834793 1.35511034254 1.31498144133 1.30047302791 1.31498144133 1.35511034254 1.4107834793 1.46571736797 1.49859267592 1.48529604556 1.40241720153 1.23180913175 0.965555552547 0.610289872775 0.189626525903 -0.25639286696 -0.675444290969 -1.01049612808 -1.20977675039 -1.23733144765 -1.08192761401 -0.762116839944 -0.325849862127 0.155916670606 0.600889182822 0.930392824893 1.08470893668 1.03556121145 0.937515758678 1.08711853956 1.02403562045 0.758850343848 0.341190203776 -0.151079951408 -0.627795936835 -1.00404059399 -1.21564773964 -1.22967882226 -1.04815062491 -0.704833144977 -0.25639286696 0.229790128551 0.688354902296 1.06667023058 1.3316982894 1.47224909373 1.49695824314 1.42918420825 1.30047302791 1.14421909307 0.990729350185 0.86424286409 0.781783136351 0.753226286255 0.781783136351 0.86424286409 0.990729350185 1.14421909307 1.30047302791 1.42918420825 1.49695824314 1.47224909373 1.3316982894 1.06667023058 0.688354902296 0.229790128551 -0.25639286696 -0.704833144977 -1.04815062491 -1.22967882226 -1.21564773964 -1.00404059399 -0.627795936835 -0.151079951408 0.341190203776 0.758850343848 1.02403562045 1.08711853956 1.03237733412 1.08348079479 0.912937220563 0.552409470702 0.0715220792576 -0.436905133219 -0.875858962199 -1.16322558562 -1.24700868293 -1.11374543854 -0.788814551749 -0.329139990107 0.189626525903 0.688354902296 1.09878481758 1.37415890022 1.49443051086 1.46571736797 1.31498144133 1.08184463158 0.809807923766 0.538895798631 0.301021414802 0.118401176628 0.00442647445391 -0.0342193470891 0.00442647445391 0.118401176628 0.301021414802 0.538895798631 0.809807923766 1.08184463158 1.31498144133 1.46571736797 1.49443051086 1.37415890022 1.09878481758 0.688354902296 0.189626525903 -0.329139990107 -0.788814551749 -1.11374543854 -1.24700868293 -1.16322558562 -0.875858962199 -0.436905133219 0.0715220792576 0.552409470702 0.912937220563 1.08348079479 1.08126987948 1.03463051189 0.766817841938 0.329982766335 -0.188573195065 -0.684886298328 -1.05987618914 -1.23925665548 -1.18764641186 -0.914146988272 -0.468633341662 0.0699440509826 0.610289872775 1.06667023058 1.37415890022 1.49827589671 1.43756661959 1.21938378437 0.890644594084 0.506292457113 0.118401176628 -0.231678405561 -0.516824240739 -0.723326143124 -0.846968425053 -0.887983856572 -0.846968425053 -0.723326143124 -0.516824240739 -0.231678405561 0.118401176628 0.506292457113 0.890644594084 1.21938378437 1.43756661959 1.49827589671 1.37415890022 1.06667023058 0.610289872775 0.0699440509826 -0.468633341662 -0.914146988272 -1.18764641186 -1.23925665548 -1.05987618914 -0.684886298328 -0.188573195065 0.329982766335 0.766817841938 1.03463051189 1.09099300781 0.952297676599 0.600889182822 0.10789340718 -0.424660541445 -0.885673859089 -1.17846922412 -1.2407899974 -1.05706055044 -0.660495694427 -0.12496976595 0.451180188276 0.965555552547 1.3316982894 1.49443051086 1.43756661959 1.18294604755 0.781783136351 0.301021414802 -0.191676326397 -0.640665856624 -1.01004034533 -1.2851023355 -1.4680964639 -1.57020812754 -1.60271254493 -1.57020812754 -1.4680964639 -1.2851023355 -1.01004034533 -0.640665856624 -0.191676326397 0.301021414802 0.781783136351 1.18294604755 1.43756661959 1.49443051086 1.3316982894 0.965555552547 0.451180188276 -0.12496976595 -0.660495694427 -1.05706055044 -1.2407899974 -1.17846922412 -0.885673859089 -0.424660541445 0.10789340718 0.600889182822 0.952297676599 1.07007923839 0.848495874916 0.428766972854 -0.101173898653 -0.627795936835 -1.0366788551 -1.23733144765 -1.18261101805 -0.878525733795 -0.382434625551 0.209696259215 0.78388563136 1.23180913175 1.47224909373 1.46571736797 1.21938378437 0.781783136351 0.229148324299 -0.3529373595 -0.887983856572 -1.3227950007 -1.63437640912 -1.82848604124 -1.93093423019 -1.97455167872 -1.98574904932 -1.97455167872 -1.93093423019 -1.82848604124 -1.63437640912 -1.3227950007 -0.887983856572 -0.3529373595 0.229148324299 0.781783136351 1.21938378437 1.46571736797 1.47224909373 1.23180913175 0.78388563136 0.209696259215 -0.382434625551 -0.878525733795 -1.18261101805 -1.23733144765 -1.0366788551 -0.627795936835 -0.101173898653 0.428766972854 0.848495874916 1.02766786985 0.734420273502 0.261628675328 -0.288506426669 -0.794127893603 -1.14078739681 -1.24700868293 -1.08257469005 -0.675444290969 -0.105817246953 0.511199699736 1.05030016934 1.40241720153 1.49695824314 1.31498144133 0.890644594084 0.301021414802 -0.3529373595 -0.969549092908 -1.4680964639 -1.80405523811 -1.97455167872 -2.01322453768 -1.97628819354 -1.92372254907 -1.90063869994 -1.92372254907 -1.97628819354 -2.01322453768 -1.97455167872 -1.80405523811 -1.4680964639 -0.969549092908 -0.3529373595 0.301021414802 0.890644594084 1.31498144133 1.49695824314 1.40241720153 1.05030016934 0.511199699736 -0.105817246953 -0.675444290969 -1.08257469005 -1.24700868293 -1.14078739681 -0.794127893603 -0.288506426669 0.261628675328 0.734420273502 0.972624711497 0.619746189497 0.10789340718 -0.44912078751 -0.923969085748 -1.2047167594 -1.22063002335 -0.958935730183 -0.468633341662 0.149576025364 0.764989941733 1.24530984389 1.48529604556 1.42918420825 1.08184463158 0.506292457113 -0.191676326397 -0.887983856572 -1.4680964639 -1.85167756645 -2.00840605707 -1.96146247479 -1.77815483473 -1.55022394493 -1.36880583456 -1.30025977451 -1.36880583456 -1.55022394493 -1.77815483473 -1.96146247479 -2.00840605707 -1.85167756645 -1.4680964639 -0.887983856572 -0.191676326397 0.506292457113 1.08184463158 1.42918420825 1.48529604556 1.24530984389 0.764989941733 0.149576025364 -0.468633341662 -0.958935730183 -1.22063002335 -1.2047167594 -0.923969085748 -0.44912078751 0.10789340718 0.619746189497 0.912937220563 0.512300155398 -0.0266776241725 -0.581127221477 -1.02059846226 -1.23733144765 -1.17192881663 -0.828376475098 -0.274751994363 0.37076414372 0.965555552547 1.37415890022 1.49859267592 1.30047302791 0.809807923766 0.118401176628 -0.640665856624 -1.3227950007 -1.80405523811 -2.00840605707 -1.92372254907 -1.60297964229 -1.15039574385 -0.695826745762 -0.363427005566 -0.241918882341 -0.363427005566 -0.695826745762 -1.15039574385 -1.60297964229 -1.92372254907 -2.00840605707 -1.80405523811 -1.3227950007 -0.640665856624 0.118401176628 0.809807923766 1.30047302791 1.49859267592 1.37415890022 0.965555552547 0.37076414372 -0.274751994363 -0.828376475098 -1.17192881663 -1.23733144765 -1.02059846226 -0.581127221477 -0.0266776241725 0.512300155398 0.85536739392 0.418031375139 -0.138591517157 -0.684886298328 -1.08901612609 -1.24814782207 -1.11374543854 -0.704833144977 -0.105817246953 0.551001683793 1.11451758683 1.44902176998 1.46571736797 1.14421909307 0.538895798631 -0.231678405561 -1.01004034533 -1.63437640912 -1.97455167872 -1.96146247479 -1.60297964229 -0.982740476352 -0.241918882341 0.452026635793 0.942646912312 1.11945389571 0.942646912312 0.452026635793 -0.241918882341 -0.982740476352 -1.60297964229 -1.96146247479 -1.97455167872 -1.63437640912 -1.01004034533 -0.231678405561 0.538895798631 1.14421909307 1.46571736797 1.44902176998 1.11451758683 0.551001683793 -0.105817246953 -0.704833144977 -1.11374543854 -1.24814782207 -1.08901612609 -0.684886298328 -0.138591517157 0.418031375139 0.805313668131 0.341190203776 -0.226078296063 -0.762116839944 -1.13481009001 -1.24615200107 -1.05706055044 -0.599048759672 0.0304254641313 0.688354902296 1.21803652906 1.48529604556 1.4107834793 0.990729350185 0.301021414802 -0.516824240739 -1.2851023355 -1.82848604124 -2.01322453768 -1.77815483473 -1.15039574385 -0.241918882341 0.772575321723 1.69186133467 2.33066483146 2.55913835868 2.33066483146 1.69186133467 0.772575321723 -0.241918882341 -1.15039574385 -1.77815483473 -2.01322453768 -1.82848604124 -1.2851023355 -0.516824240739 0.301021414802 0.990729350185 1.4107834793 1.48529604556 1.21803652906 0.688354902296 0.0304254641313 -0.599048759672 -1.05706055044 -1.24615200107 -1.13481009001 -0.762116839944 -0.226078296063 0.341190203776 0.766817841938 0.284617763946 -0.288506426669 -0.815072608509 -1.16322558562 -1.23896193342 -1.01049612808 -0.518667241411 0.12960341495 0.78388563136 1.28412068821 1.49827589671 1.35511034254 0.86424286409 0.118401176628 -0.723326143124 -1.4680964639 -1.93093423019 -1.97628819354 -1.55022394493 -0.695826745762 0.452026635793 1.69186133467 2.79567072209 3.55541351833 3.82598843279 3.55541351833 2.79567072209 1.69186133467 0.452026635793 -0.695826745762 -1.55022394493 -1.97628819354 -1.93093423019 -1.4680964639 -0.723326143124 0.118401176628 0.86424286409 1.35511034254 1.49827589671 1.28412068821 0.78388563136 0.12960341495 -0.518667241411 -1.01049612808 -1.23896193342 -1.16322558562 -0.815072608509 -0.288506426669 0.284617763946 0.742651032165 0.250061201787 -0.325849862127 -0.845862272047 -1.17846922412 -1.23229650006 -0.980154486241 -0.468633341662 0.189626525903 0.839855030586 1.32026867099 1.50057497228 1.31498144133 0.781783136351 0.00442647445391 -0.846968425053 -1.57020812754 -1.97455167872 -1.92372254907 -1.36880583456 -0.363427005566 0.942646912312 2.33066483146 3.55541351833 4.39426209136 4.6923490362 4.39426209136 3.55541351833 2.33066483146 0.942646912312 -0.363427005566 -1.36880583456 -1.92372254907 -1.97455167872 -1.57020812754 -0.846968425053 0.00442647445391 0.781783136351 1.31498144133 1.50057497228 1.32026867099 0.839855030586 0.189626525903 -0.468633341662 -0.980154486241 -1.23229650006 -1.17846922412 -0.845862272047 -0.325849862127 0.250061201787 0.734420273502 0.238446553984 -0.338269740558 -0.855951502036 -1.18324097231 -1.22967882226 -0.969643738437 -0.451668055914 0.209696259215 0.858254035688 1.3316982894 1.5003963526 1.30047302791 0.753226286255 -0.0342193470891 -0.887983856572 -1.60271254493 -1.98574904932 -1.90063869994 -1.30025977451 -0.241918882341 1.11945389571 2.55913835868 3.82598843279 4.6923490362 5.0 4.6923490362 3.82598843279 2.55913835868 1.11945389571 -0.241918882341 -1.30025977451 -1.90063869994 -1.98574904932 -1.60271254493 -0.887983856572 -0.0342193470891 0.753226286255 1.30047302791 1.5003963526 1.3316982894 0.858254035688 0.209696259215 -0.451668055914 -0.969643738437 -1.22967882226 -1.18324097231 -0.855951502036 -0.338269740558 0.238446553984 0.742651032165 0.250061201787 -0.325849862127 -0.845862272047 -1.17846922412 -1.23229650006 -0.980154486241 -0.468633341662 0.189626525903 0.839855030586 1.32026867099 1.50057497228 1.31498144133 0.781783136351 0.00442647445391 -0.846968425053 -1.57020812754 -1.97455167872 -1.92372254907 -1.36880583456 -0.363427005566 0.942646912312 2.33066483146 3.55541351833 4.39426209136 4.6923490362 4.39426209136 3.55541351833 2.33066483146 0.942646912312 -0.363427005566 -1.36880583456 -1.92372254907 -1.97455167872 -1.57020812754 -0.846968425053 0.00442647445391 0.781783136351 1.31498144133 1.50057497228 1.32026867099 0.839855030586 0.189626525903 -0.468633341662 -0.980154486241 -1.23229650006 -1.17846922412 -0.845862272047 -0.325849862127 0.250061201787 0.766817841938 0.284617763946 -0.288506426669 -0.815072608509 -1.16322558562 -1.23896193342 -1.01049612808 -0.518667241411 0.12960341495 0.78388563136 1.28412068821 1.49827589671 1.35511034254 0.86424286409 0.118401176628 -0.723326143124 -1.4680964639 -1.93093423019 -1.97628819354 -1.55022394493 -0.695826745762 0.452026635793 1.69186133467 2.79567072209 3.55541351833 3.82598843279 3.55541351833 2.79567072209 1.69186133467 0.452026635793 -0.695826745762 -1.55022394493 -1.97628819354 -1.93093423019 -1.4680964639 -0.723326143124 0.118401176628 0.86424286409 1.35511034254 1.49827589671 1.28412068821 0.78388563136 0.12960341495 -0.518667241411 -1.01049612808 -1.23896193342 -1.16322558562 -0.815072608509 -0.288506426669 0.284617763946 0.805313668131 0.341190203776 -0.226078296063 -0.762116839944 -1.13481009001 -1.24615200107 -1.05706055044 -0.599048759672 0.0304254641313 0.688354902296 1.21803652906 1.48529604556 1.4107834793 0.990729350185 0.301021414802 -0.516824240739 -1.2851023355 -1.82848604124 -2.01322453768 -1.77815483473 -1.15039574385 -0.241918882341 0.772575321723 1.69186133467 2.33066483146 2.55913835868 2.33066483146 1.69186133467 0.772575321723 -0.241918882341 -1.15039574385 -1.77815483473 -2.01322453768 -1.82848604124 -1.2851023355 -0.516824240739 0.301021414802 0.990729350185 1.4107834793 1.48529604556 1.21803652906 0.688354902296 0.0304254641313 -0.599048759672 -1.05706055044 -1.24615200107 -1.13481009001 -0.762116839944 -0.226078296063 0.341190203776 0.85536739392 0.418031375139 -0.138591517157 -0.684886298328 -1.08901612609 -1.24814782207 -1.11374543854 -0.704833144977 -0.105817246953 0.551001683793 1.11451758683 1.44902176998 1.46571736797 1.14421909307 0.538895798631 -0.231678405561 -1.01004034533 -1.63437640912 -1.97455167872 -1.96146247479 -1.60297964229 -0.982740476352 -0.241918882341 0.452026635793 0.942646912312 1.11945389571 0.942646912312 0.452026635793 -0.241918882341 -0.982740476352 -1.60297964229 -1.96146247479 -1.97455167872 -1.63437640912 -1.01004034533 -0.231678405561 0.538895798631 1.14421909307 1.46571736797 1.44902176998 1.11451758683 0.551001683793 -0.105817246953 -0.704833144977 -1.11374543854 -1.24814782207 -1.08901612609 -0.684886298328 -0.138591517157 0.418031375139 0.912937220563 0.512300155398 -0.0266776241725 -0.581127221477 -1.02059846226 -1.23733144765 -1.17192881663 -0.828376475098 -0.274751994363 0.37076414372 0.965555552547 1.37415890022 1.49859267592 1.30047302791 0.809807923766 0.118401176628 -0.640665856624 -1.3227950007 -1.80405523811 -2.00840605707 -1.92372254907 -1.60297964229 -1.15039574385 -0.695826745762 -0.363427005566 -0.241918882341 -0.363427005566 -0.695826745762 -1.15039574385 -1.60297964229 -1.92372254907 -2.00840605707 -1.80405523811 -1.3227950007 -0.640665856624 0.118401176628 0.809807923766 1.30047302791 1.49859267592 1.37415890022 0.965555552547 0.37076414372 -0.274751994363 -0.828376475098 -1.17192881663 -1.23733144765 -1.02059846226 -0.581127221477 -0.0266776241725 0.512300155398 0.972624711497 0.619746189497 0.10789340718 -0.44912078751 -0.923969085748 -1.2047167594 -1.22063002335 -0.958935730183 -0.468633341662 0.149576025364 0.764989941733 1.24530984389 1.48529604556 1.42918420825 1.08184463158 0.506292457113 -0.191676326397 -0.887983856572 -1.4680964639 -1.85167756645 -2.00840605707 -1.96146247479 -1.77815483473 -1.55022394493 -1.36880583456 -1.30025977451 -1.36880583456 -1.55022394493 -1.77815483473 -1.96146247479 -2.00840605707 -1.85167756645 -1.4680964639 -0.887983856572 -0.191676326397 0.506292457113 1.08184463158 1.42918420825 1.48529604556 1.24530984389 0.764989941733 0.149576025364 -0.468633341662 -0.958935730183 -1.22063002335 -1.2047167594 -0.923969085748 -0.44912078751 0.10789340718 0.619746189497 1.02766786985 0.734420273502 0.261628675328 -0.288506426669 -0.794127893603 -1.14078739681 -1.24700868293 -1.08257469005 -0.675444290969 -0.105817246953 0.511199699736 1.05030016934 1.40241720153 1.49695824314 1.31498144133 0.890644594084 0.301021414802 -0.3529373595 -0.969549092908 -1.4680964639 -1.80405523811 -1.97455167872 -2.01322453768 -1.97628819354 -1.92372254907 -1.90063869994 -1.92372254907 -1.97628819354 -2.01322453768 -1.97455167872 -1.80405523811 -1.4680964639 -0.969549092908 -0.3529373595 0.301021414802 0.890644594084 1.31498144133 1.49695824314 1.40241720153 1.05030016934 0.511199699736 -0.105817246953 -0.675444290969 -1.08257469005 -1.24700868293 -1.14078739681 -0.794127893603 -0.288506426669 0.261628675328 0.734420273502 1.07007923839 0.848495874916 0.428766972854 -0.101173898653 -0.627795936835 -1.0366788551 -1.23733144765 -1.18261101805 -0.878525733795 -0.382434625551 0.209696259215 0.78388563136 1.23180913175 1.47224909373 1.46571736797 1.21938378437 0.781783136351 0.229148324299 -0.3529373595 -0.887983856572 -1.3227950007 -1.63437640912 -1.82848604124 -1.93093423019 -1.97455167872 -1.98574904932 -1.97455167872 -1.93093423019 -1.82848604124 -1.63437640912 -1.3227950007 -0.887983856572 -0.3529373595 0.229148324299 0.781783136351 1.21938378437 1.46571736797 1.47224909373 1.23180913175 0.78388563136 0.209696259215 -0.382434625551 -0.878525733795 -1.18261101805 -1.23733144765 -1.0366788551 -0.627795936835 -0.101173898653 0.428766972854 0.848495874916 1.09099300781 0.952297676599 0.600889182822 0.10789340718 -0.424660541445 -0.885673859089 -1.17846922412 -1.2407899974 -1.05706055044 -0.660495694427 -0.12496976595 0.451180188276 0.965555552547 1.3316982894 1.49443051086 1.43756661959 1.18294604755 0.781783136351 0.301021414802 -0.191676326397 -0.640665856624 -1.01004034533 -1.2851023355 -1.4680964639 -1.57020812754 -1.60271254493 -1.57020812754 -1.4680964639 -1.2851023355 -1.01004034533 -0.640665856624 -0.191676326397 0.301021414802 0.781783136351 1.18294604755 1.43756661959 1.49443051086 1.3316982894 0.965555552547 0.451180188276 -0.12496976595 -0.660495694427 -1.05706055044 -1.2407899974 -1.17846922412 -0.885673859089 -0.424660541445 0.10789340718 0.600889182822 0.952297676599 1.08126987948 1.03463051189 0.766817841938 0.329982766335 -0.188573195065 -0.684886298328 -1.05987618914 -1.23925665548 -1.18764641186 -0.914146988272 -0.468633341662 0.0699440509826 0.610289872775 1.06667023058 1.37415890022 1.49827589671 1.43756661959 1.21938378437 0.890644594084 0.506292457113 0.118401176628 -0.231678405561 -0.516824240739 -0.723326143124 -0.846968425053 -0.887983856572 -0.846968425053 -0.723326143124 -0.516824240739 -0.231678405561 0.118401176628 0.506292457113 0.890644594084 1.21938378437 1.43756661959 1.49827589671 1.37415890022 1.06667023058 0.610289872775 0.0699440509826 -0.468633341662 -0.914146988272 -1.18764641186 -1.23925665548 -1.05987618914 -0.684886298328 -0.188573195065 0.329982766335 0.766817841938 1.03463051189 1.03237733412 1.08348079479 0.912937220563 0.552409470702 0.0715220792576 -0.436905133219 -0.875858962199 -1.16322558562 -1.24700868293 -1.11374543854 -0.788814551749 -0.329139990107 0.189626525903 0.688354902296 1.09878481758 1.37415890022 1.49443051086 1.46571736797 1.31498144133 1.08184463158 0.809807923766 0.538895798631 0.301021414802 0.118401176628 0.00442647445391 -0.0342193470891 0.00442647445391 0.118401176628 0.301021414802 0.538895798631 0.809807923766 1.08184463158 1.31498144133 1.46571736797 1.49443051086 1.37415890022 1.09878481758 0.688354902296 0.189626525903 -0.329139990107 -0.788814551749 -1.11374543854 -1.24700868293 -1.16322558562 -0.875858962199 -0.436905133219 0.0715220792576 0.552409470702 0.912937220563 1.08348079479 0.937515758678 1.08711853956 1.02403562045 0.758850343848 0.341190203776 -0.151079951408 -0.627795936835 -1.00404059399 -1.21564773964 -1.22967882226 -1.04815062491 -0.704833144977 -0.25639286696 0.229790128551 0.688354902296 1.06667023058 1.3316982894 1.47224909373 1.49695824314 1.42918420825 1.30047302791 1.14421909307 0.990729350185 0.86424286409 0.781783136351 0.753226286255 0.781783136351 0.86424286409 0.990729350185 1.14421909307 1.30047302791 1.42918420825 1.49695824314 1.47224909373 1.3316982894 1.06667023058 0.688354902296 0.229790128551 -0.25639286696 -0.704833144977 -1.04815062491 -1.22967882226 -1.21564773964 -1.00404059399 -0.627795936835 -0.151079951408 0.341190203776 0.758850343848 1.02403562045 1.08711853956 0.792900999983 1.03556121145 1.08470893668 0.930392824893 0.600889182822 0.155916670606 -0.325849862127 -0.762116839944 -1.08192761401 -1.23733144765 -1.20977675039 -1.01049612808 -0.675444290969 -0.25639286696 0.189626525903 0.610289872775 0.965555552547 1.23180913175 1.40241720153 1.48529604556 1.49859267592 1.46571736797 1.4107834793 1.35511034254 1.31498144133 1.30047302791 1.31498144133 1.35511034254 1.4107834793 1.46571736797 1.49859267592 1.48529604556 1.40241720153 1.23180913175 0.965555552547 0.610289872775 0.189626525903 -0.25639286696 -0.675444290969 -1.01049612808 -1.20977675039 -1.23733144765 -1.08192761401 -0.762116839944 -0.325849862127 0.155916670606 0.600889182822 0.930392824893 1.08470893668 1.03556121145 0.599049224489 0.922276541299 1.08126987948 1.04734788907 0.827320862165 0.460590698487 0.0103279766392 -0.44912078751 -0.845862272047 -1.12242445833 -1.24395784007 -1.20153271451 -1.01049612808 -0.704833144977 -0.329139990107 0.0699440509826 0.451180188276 0.78388563136 1.05030016934 1.24530984389 1.37415890022 1.44902176998 1.48529604556 1.49827589671 1.50057497228 1.5003963526 1.50057497228 1.49827589671 1.48529604556 1.44902176998 1.37415890022 1.24530984389 1.05030016934 0.78388563136 0.451180188276 0.0699440509826 -0.329139990107 -0.704833144977 -1.0104961280